# vtk DataFile Version 4.2
vtk output
ASCII
DATASET UNSTRUCTURED_GRID
POINTS 38112 float
0.000159205 0.0459595 1e-07 0.0910679 0.0459595 1e-07 0.000159205 0.0459595 0.0909088 
0.00016037 0.0462879 0.0909088 0.0910679 0.0459595 0.0909088 0.00387147 0.0486486 0.999996 
0.000160265 0.0467696 0.999996 0.00230119 0.0432031 0.999996 0.0412046 0.0349339 0.999996 
0.000161941 0.0467691 0.272726 0.000140272 0.0463638 0.272726 0.0114969 0.0345959 0.272726 
0.170587 0.0345959 0.272726 0.013112 0.0572077 0.272726 0.000256527 0.0489323 1e-07 
0.000548074 0.0518924 1e-07 0.0010326 0.0548272 1e-07 0.00170802 0.0577239 1e-07 
0.00257146 0.0605703 1e-07 0.00361921 0.0633541 1e-07 0.00484679 0.0660634 1e-07 
0.00624893 0.0686866 1e-07 0.00781965 0.0712125 1e-07 0.0095522 0.0736303 1e-07 
0.0114392 0.0759296 1e-07 0.0134725 0.0781005 1e-07 0.0156434 0.0801338 1e-07 
0.0179427 0.0820208 1e-07 0.0203605 0.0837534 1e-07 0.0228864 0.0853241 1e-07 
0.0255096 0.0867262 1e-07 0.0282189 0.0879538 1e-07 0.0310027 0.0890016 1e-07 
0.0338491 0.089865 1e-07 0.0367459 0.0905404 1e-07 0.0396806 0.0910249 1e-07 
0.0426407 0.0913165 1e-07 0.0456136 0.0914138 1e-07 0.0485864 0.0913165 1e-07 
0.0515465 0.0910249 1e-07 0.0544813 0.0905404 1e-07 0.057378 0.089865 1e-07 
0.0602244 0.0890016 1e-07 0.0630082 0.0879538 1e-07 0.0657175 0.0867262 1e-07 
0.0683407 0.0853241 1e-07 0.0708666 0.0837534 1e-07 0.0732844 0.0820208 1e-07 
0.0755837 0.0801338 1e-07 0.0777546 0.0781005 1e-07 0.0797879 0.0759296 1e-07 
0.0816749 0.0736303 1e-07 0.0834075 0.0712125 1e-07 0.0849782 0.0686866 1e-07 
0.0863803 0.0660634 1e-07 0.0876079 0.0633541 1e-07 0.0886557 0.0605703 1e-07 
0.0895191 0.0577239 1e-07 0.0901945 0.0548272 1e-07 0.090679 0.0518924 1e-07 
0.0909706 0.0489323 1e-07 0.000159205 0.0459595 0.00293264 0.000159205 0.0459595 0.00586518 
0.000159205 0.0459595 0.00879772 0.000159205 0.0459595 0.0117303 0.000159205 0.0459595 0.0146628 
0.000159205 0.0459595 0.0175953 0.000159205 0.0459595 0.0205279 0.000159205 0.0459595 0.0234604 
0.000159205 0.0459595 0.0263929 0.000159205 0.0459595 0.0293255 0.000159205 0.0459595 0.032258 
0.000159205 0.0459595 0.0351906 0.000159205 0.0459595 0.0381231 0.000159205 0.0459595 0.0410556 
0.000159205 0.0459595 0.0439882 0.000159205 0.0459595 0.0469207 0.000159205 0.0459595 0.0498533 
0.000159205 0.0459595 0.0527858 0.000159205 0.0459595 0.0557183 0.000159205 0.0459595 0.0586509 
0.000159205 0.0459595 0.0615834 0.000159205 0.0459595 0.064516 0.000159205 0.0459595 0.0674485 
0.000159205 0.0459595 0.070381 0.000159205 0.0459595 0.0733136 0.000159205 0.0459595 0.0762461 
0.000159205 0.0459595 0.0791786 0.000159205 0.0459595 0.0821112 0.000159205 0.0459595 0.0850437 
0.000159205 0.0459595 0.0879763 0.000159502 0.0461237 0.0909088 0.000278696 0.0492532 0.0909088 
0.00059024 0.0522044 0.0909088 0.00109369 0.055129 0.0909088 0.00178691 0.0580145 0.0909088 
0.00266694 0.0608486 0.0909088 0.00373003 0.0636193 0.0909088 0.00497165 0.0663146 0.0909088 
0.0063865 0.0689233 0.0909088 0.00796856 0.071434 0.0909088 0.00971108 0.0738361 0.0909088 
0.0116066 0.0761195 0.0909088 0.0136471 0.0782743 0.0909088 0.0158239 0.0802913 0.0909088 
0.0181276 0.082162 0.0909088 0.0205485 0.0838784 0.0909088 0.0230763 0.0854331 0.0909088 
0.0257001 0.0868196 0.0909088 0.0284088 0.0880319 0.0909088 0.0311908 0.0890649 0.0909088 
0.0340343 0.0899142 0.0909088 0.0369271 0.0905761 0.0909088 0.039857 0.0910478 0.0909088 
0.0428114 0.0913274 0.0909088 0.0457778 0.0914135 0.0909088 0.0487434 0.0913059 0.0909088 
0.0516958 0.091005 0.0909088 0.0546222 0.0905122 0.0909088 0.0575101 0.0898294 0.0909088 
0.0603474 0.0889596 0.0909088 0.0631219 0.0879065 0.0909088 0.0658218 0.0866746 0.0909088 
0.0684355 0.0852692 0.0909088 0.0709519 0.0836962 0.0909088 0.0733604 0.0819624 0.0909088 
0.0756505 0.0800751 0.0909088 0.0778126 0.0780424 0.0909088 0.0798375 0.075873 0.0909088 
0.0817165 0.073576 0.0909088 0.0834417 0.0711613 0.0909088 0.0850055 0.0686392 0.0909088 
0.0864015 0.0660204 0.0909088 0.0876236 0.0633161 0.0909088 0.0886666 0.0605379 0.0909088 
0.0895262 0.0576975 0.0909088 0.0901985 0.054807 0.0909088 0.0906808 0.0518789 0.0909088 
0.090971 0.0489255 0.0909088 0.0910679 0.0459595 0.00293264 0.0910679 0.0459595 0.00586518 
0.0910679 0.0459595 0.00879772 0.0910679 0.0459595 0.0117303 0.0910679 0.0459595 0.0146628 
0.0910679 0.0459595 0.0175953 0.0910679 0.0459595 0.0205279 0.0910679 0.0459595 0.0234604 
0.0910679 0.0459595 0.0263929 0.0910679 0.0459595 0.0293255 0.0910679 0.0459595 0.032258 
0.0910679 0.0459595 0.0351906 0.0910679 0.0459595 0.0381231 0.0910679 0.0459595 0.0410556 
0.0910679 0.0459595 0.0439882 0.0910679 0.0459595 0.0469207 0.0910679 0.0459595 0.0498533 
0.0910679 0.0459595 0.0527858 0.0910679 0.0459595 0.0557183 0.0910679 0.0459595 0.0586509 
0.0910679 0.0459595 0.0615834 0.0910679 0.0459595 0.064516 0.0910679 0.0459595 0.0674485 
0.0910679 0.0459595 0.070381 0.0910679 0.0459595 0.0733136 0.0910679 0.0459595 0.0762461 
0.0910679 0.0459595 0.0791786 0.0910679 0.0459595 0.0821112 0.0910679 0.0459595 0.0850437 
0.0910679 0.0459595 0.0879763 0.00160779 0.0485161 0.999996 0.000455632 0.0445206 0.999996 
0.00508001 0.0426125 0.999996 0.00785883 0.0420218 0.999996 0.0106376 0.0414312 0.999996 
0.0134165 0.0408405 0.999996 0.0161953 0.0402498 0.999996 0.0189741 0.0396592 0.999996 
0.0217529 0.0390685 0.999996 0.0245317 0.0384779 0.999996 0.0273105 0.0378872 0.999996 
0.0300894 0.0372966 0.999996 0.0328682 0.0367059 0.999996 0.035647 0.0361153 0.999996 
0.0384258 0.0355246 0.999996 0.038538 0.0359136 0.999996 0.0358713 0.0368932 0.999996 
0.0332047 0.0378728 0.999996 0.030538 0.0388524 0.999996 0.0278714 0.039832 0.999996 
0.0252047 0.0408117 0.999996 0.022538 0.0417913 0.999996 0.0198714 0.0427709 0.999996 
0.0172047 0.0437505 0.999996 0.0145381 0.0447301 0.999996 0.0118714 0.0457097 0.999996 
0.00920477 0.0466894 0.999996 0.00653812 0.047669 0.999996 0.000149524 0.0465665 0.272726 
0.00891196 0.0348938 0.272726 0.00646257 0.0357719 0.272726 0.00427714 0.0371841 0.272726 
0.00247025 0.0390565 0.272726 0.00113664 0.0412908 0.272726 0.000346243 0.0437699 0.272726 
0.014443 0.0345959 0.272726 0.0173891 0.0345959 0.272726 0.0203352 0.0345959 0.272726 
0.0232813 0.0345959 0.272726 0.0262275 0.0345959 0.272726 0.0291736 0.0345959 0.272726 
0.0321197 0.0345959 0.272726 0.0350658 0.0345959 0.272726 0.0380119 0.0345959 0.272726 
0.040958 0.0345959 0.272726 0.0439042 0.0345959 0.272726 0.0468503 0.0345959 0.272726 
0.0497964 0.0345959 0.272726 0.0527425 0.0345959 0.272726 0.0556886 0.0345959 0.272726 
0.0586347 0.0345959 0.272726 0.0615808 0.0345959 0.272726 0.064527 0.0345959 0.272726 
0.0674731 0.0345959 0.272726 0.0704192 0.0345959 0.272726 0.0733653 0.0345959 0.272726 
0.0763114 0.0345959 0.272726 0.0792575 0.0345959 0.272726 0.0822037 0.0345959 0.272726 
0.0851498 0.0345959 0.272726 0.0880959 0.0345959 0.272726 0.091042 0.0345959 0.272726 
0.0939881 0.0345959 0.272726 0.0969342 0.0345959 0.272726 0.0998803 0.0345959 0.272726 
0.102826 0.0345959 0.272726 0.105773 0.0345959 0.272726 0.108719 0.0345959 0.272726 
0.111665 0.0345959 0.272726 0.114611 0.0345959 0.272726 0.117557 0.0345959 0.272726 
0.120503 0.0345959 0.272726 0.123449 0.0345959 0.272726 0.126395 0.0345959 0.272726 
0.129341 0.0345959 0.272726 0.132288 0.0345959 0.272726 0.135234 0.0345959 0.272726 
0.13818 0.0345959 0.272726 0.141126 0.0345959 0.272726 0.144072 0.0345959 0.272726 
0.147018 0.0345959 0.272726 0.149964 0.0345959 0.272726 0.15291 0.0345959 0.272726 
0.155857 0.0345959 0.272726 0.158803 0.0345959 0.272726 0.161749 0.0345959 0.272726 
0.164695 0.0345959 0.272726 0.167641 0.0345959 0.272726 0.170063 0.0345972 0.275671 
0.169539 0.0345986 0.278615 0.169016 0.0346 0.281559 0.168492 0.0346013 0.284504 
0.167968 0.0346027 0.287448 0.167444 0.0346041 0.290393 0.16692 0.0346054 0.293337 
0.166397 0.0346068 0.296281 0.165873 0.0346082 0.299226 0.165349 0.0346096 0.30217 
0.164825 0.0346109 0.305115 0.164301 0.0346123 0.308059 0.163778 0.0346137 0.311004 
0.163254 0.034615 0.313948 0.16273 0.0346164 0.316892 0.162206 0.0346178 0.319837 
0.161682 0.0346191 0.322781 0.161158 0.0346205 0.325726 0.160635 0.0346219 0.32867 
0.160111 0.0346232 0.331614 0.159587 0.0346246 0.334559 0.159063 0.034626 0.337503 
0.158539 0.0346273 0.340448 0.158016 0.0346287 0.343392 0.157492 0.0346301 0.346336 
0.156968 0.0346315 0.349281 0.156444 0.0346328 0.352225 0.15592 0.0346342 0.35517 
0.155396 0.0346356 0.358114 0.154873 0.0346369 0.361059 0.154349 0.0346383 0.364003 
0.153825 0.0346397 0.366947 0.153301 0.034641 0.369892 0.152777 0.0346424 0.372836 
0.152254 0.0346438 0.375781 0.15173 0.0346451 0.378725 0.151206 0.0346465 0.381669 
0.150682 0.0346479 0.384614 0.150158 0.0346492 0.387558 0.149634 0.0346506 0.390503 
0.149111 0.034652 0.393447 0.148587 0.0346534 0.396391 0.148063 0.0346547 0.399336 
0.147539 0.0346561 0.40228 0.147015 0.0346575 0.405225 0.146492 0.0346588 0.408169 
0.145968 0.0346602 0.411114 0.145444 0.0346616 0.414058 0.14492 0.0346629 0.417002 
0.144396 0.0346643 0.419947 0.143873 0.0346657 0.422891 0.143349 0.034667 0.425836 
0.142825 0.0346684 0.42878 0.142301 0.0346698 0.431724 0.141777 0.0346711 0.434669 
0.141253 0.0346725 0.437613 0.14073 0.0346739 0.440558 0.140206 0.0346753 0.443502 
0.139682 0.0346766 0.446446 0.139158 0.034678 0.449391 0.138634 0.0346794 0.452335 
0.138111 0.0346807 0.45528 0.137587 0.0346821 0.458224 0.137063 0.0346835 0.461169 
0.136539 0.0346848 0.464113 0.136015 0.0346862 0.467057 0.135491 0.0346876 0.470002 
0.134968 0.0346889 0.472946 0.134444 0.0346903 0.475891 0.13392 0.0346917 0.478835 
0.133396 0.034693 0.481779 0.132872 0.0346944 0.484724 0.132349 0.0346958 0.487668 
0.131825 0.0346972 0.490613 0.131301 0.0346985 0.493557 0.130777 0.0346999 0.496501 
0.130253 0.0347013 0.499446 0.129729 0.0347026 0.50239 0.129206 0.034704 0.505335 
0.128682 0.0347054 0.508279 0.128158 0.0347067 0.511224 0.127634 0.0347081 0.514168 
[...]
POINT_DATA 38112
SCALARS scalars double
LOOKUP_TABLE default
1.6755246382 0.9791806223 0.9791806223 0.97594938187 0.12925491957 0.32674332908 0.2776476709 0.26537269646 0.54790553034 
-0.21848899462 -0.21871453724 -0.21891455992 0.84665342709 -0.17856744253 1.6614421038 1.6456214604 1.6279987081 1.608529286 
1.5871910674 1.5639868693 1.5389463527 1.5121272659 1.4836159585 1.4535271413 1.4220028983 1.3892109713 1.3553423764 
1.320608436 1.2852373307 1.2494702963 1.2135576014 1.1777544454 1.1423169107 1.1074981012 1.0735445931 1.0406932642 
1.0091686212 0.9791806223 0.95092299418 0.92457215604 0.90028663152 0.87820684639 0.85845535202 0.84113736239 0.82634148831 
0.81414061067 0.80459278868 0.79774212852 0.79361954089 0.79224332568 0.79361954089 0.79774212852 0.80459278868 0.81414061067 
0.82634148831 0.84113736239 0.85845535202 0.87820684639 0.90028663152 0.92457215604 0.95092299418 1.6620913228 1.6478994822 
1.6329613203 1.6172896828 1.6008980458 1.5838005048 1.5660117624 1.5475471152 1.5284224415 1.5086541868 1.4882593501 
1.4672554694 1.4456606061 1.4234933302 1.4007727036 1.3775182642 1.3537500088 1.3294883762 1.3047542293 1.2795688375 
1.253953858 1.2279313177 1.2015235938 1.1747533947 1.1476437405 1.1202179433 1.0924995871 1.0645125071 1.0362807702 
1.0078286531 0.97756806161 0.94562304305 0.91336366165 0.87931770006 0.84365137042 0.80654977139 0.76821568232 0.72886770117 
0.68873781972 0.6480684677 0.60710910841 0.56611251021 0.52533080025 0.48501144046 0.44539327077 0.40670275866 0.3691505867 
0.3329287004 0.29820791916 0.26513617067 0.23383741486 0.20441127636 0.17693335616 0.15145624009 0.12801106154 0.10660959733 
0.087246829787 0.069903824088 0.054550788777 0.041150246079 0.029660219162 0.020037284504 0.01223942328 0.0062285761201 0.0019728304138 
-0.0005518173438 -0.0013601746761 -0.00045707368159 0.0021628811813 0.0065150314059 0.012623856271 0.020521658734 0.030246778083 0.041841380646 
0.055348886751 0.070811105432 0.088265173261 0.10774036371 0.95036131277 0.92139550671 0.89230811227 0.86312414222 0.83386869232 
0.80456691983 0.77524402184 0.74592521359 0.71663570682 0.68740068807 0.65824529701 0.62919460487 0.6002735928 0.57150713049 
0.54291995468 0.51453664797 0.48638161763 0.45847907467 0.43085301292 0.40352718852 0.37652509939 0.34986996507 0.32358470678 
0.29769192763 0.27221389327 0.24717251269 0.22258931937 0.19848545283 0.17488164039 0.15179817935 0.30551630372 0.26085193696 
0.2842559944 0.30337664747 0.32272550098 0.34229329097 0.36207064867 0.38204810496 0.40221609491 0.42256496239 0.44308496465 
0.463766277 0.48459899753 0.50557315183 0.52667869778 0.5315296483 0.51522448152 0.49899467048 0.48284483423 0.46677956904 
0.45080344714 0.43492101536 0.41913679388 0.40345527492 0.3878809215 0.37241816609 0.35707140945 0.34184501929 -0.21860483282 
-0.21971853387 -0.21996788937 -0.21999996023 -0.21999956124 -0.2199505622 -0.2196400838 -0.21710897878 -0.21443800995 -0.21090397158 
-0.20650993083 -0.20125970129 -0.19515783961 -0.18820964157 -0.1804211375 -0.17179908702 -0.16235097316 -0.15208499593 -0.14101006513 
-0.12913579265 -0.11647248415 -0.10303113005 -0.08882339608 -0.073861613077 -0.058158766325 -0.041728484276 -0.024585026717 -0.0067432724011 
0.011781293871 0.030972594688 0.050813973981 0.071288211481 0.092377537664 0.11406364917 0.13632772469 0.15915044132 0.18251199127 
0.20639209915 0.23077003948 0.25562465473 0.28093437365 0.30667723003 0.33283088172 0.35937263004 0.38627943951 0.41352795778 
0.44109453597 0.46895524911 0.497085917 0.5254621251 0.55405924581 0.58285245978 0.61181677746 0.64092706082 0.67015804513 
0.69948436093 0.72888055598 0.75832111744 0.78778049394 0.81723311776 0.87079730028 0.89488791518 0.91891114114 0.94285288704 
0.96669910955 0.99043582137 1.0140490994 1.0375250931 1.0608500322 1.0840102351 1.1069921172 1.1297821978 1.1523671094 
1.1747336044 1.1968685635 1.2187590032 1.2403920832 1.2617551146 1.2828355665 1.3036210739 1.3240994448 1.3442586674 
1.3640869171 1.3835725633 1.4027041764 1.4214705347 1.4398606304 1.4578636767 1.4754691135 1.4926666143 1.5094460915 
1.5257977031 1.5417118577 1.5571792207 1.5721907196 1.5867375491 1.6008111767 1.6144033472 1.627506088 1.6401117135 
1.6522128298 1.6638023388 1.6748734425 1.685419647 1.6954347663 1.704912926 1.7138485664 1.7222364463 1.7300716456 
1.7373495686 1.7440659463 1.750216839 1.755798639 1.7608080721 1.7652422 1.7690984217 1.7723744755 1.7750684396 
1.777178734 1.7787041207 1.779643705 1.7799969359 1.7797636061 1.7789438524 1.7775381558 1.7755473408 1.772972575 
1.7698153688 1.766077574 1.7617613831 1.7568693279 1.7514042777 1.7453694383 1.7387683494 1.7316048829 1.7238832407 
1.715607952 1.7067838709 1.697416173 1.6875103533 1.6770722221 1.6661079019 1.6546238241 1.6426267248 1.6301236411 
1.6171219067 1.603629148 1.5896532794 1.5752024985 1.5602852817 1.5449103788 1.5290868082 1.5128238514 1.4961310476 
1.4790181882 1.461495311 1.4435726942 1.4252608505 1.4065705211 1.3875126689 1.3680984725 1.3483393197 1.3282468004 
1.3078327 1.2871089928 1.2660878345 1.2447815553 1.2232026527 1.2013637841 1.1792777592 1.1569575331 1.1344161977 
1.1116669752 1.0887232092 1.0655983578 1.0423059851 1.0188597535 0.99527341581 0.97156080679 0.94773583538 0.92381247643 
0.89980476248 0.87572677555 0.85159263889 0.82741650867 0.8032125657 0.77899500712 0.75477803802 0.73057586319 0.70640267869 
0.68227266363 0.65819997175 0.6341987232 0.61028299621 0.58646681884 0.56276416077 0.53918892509 0.51575494016 0.49247595146 
0.46936561358 0.44643748217 0.42370500602 0.40118151914 0.37888023296 0.35681422859 0.33499644911 0.31343969202 0.29215660169 
0.271159662 0.25046118895 0.2300733235 0.2100080244 0.1902770612 0.17089200735 0.15186423339 0.1332049003 0.11492495294 
0.097035113653 0.079545875934 0.06246749832 0.045809998346 0.029583146675 0.01379646137 -0.0015407976918 -0.01641963425 -0.030831320936 
-0.044767404397 -0.058219710249 -0.071180347874 -0.083641715048 -0.095596502401 -0.1070376977 -0.11795858998 -0.12835277344 -0.13821415126 
-0.1475369391 -0.15631566859 -0.16454519044 -0.17222067753 -0.1793376277 -0.18589186642 -0.19187954922 -0.19729716394 -0.20214153283 
-0.20640981434 -0.21009950487 -0.21320844019 -0.21573479671 -0.21767709256 -0.21903418847 -0.21980528841 -0.21998994009 -0.2195880352 
-0.21859980947 -0.21702584257 -0.21486705773 -0.2121247212 -0.20880044154 -0.20489616865 -0.20041419263 -0.19535714243 -0.18972798433 
-0.18353002018 -0.17676688549 -0.16944254724 -0.16156130162 -0.15312777148 -0.1441469036 -0.13462396583 -0.12456454396 -0.11397453848 
-0.10286016107 -0.091227931031 -0.079084671378 -0.066437504894 -0.053293849934 -0.039661416071 -0.02554819958 -0.010962478744 0.0040871910002 
0.019591982081 0.035542799971 0.051930288517 0.068744835435 0.085976577942 0.10361540854 0.12165098097 0.14007271622 0.1588698088 
0.17803123304 0.19754574958 0.21740191191 0.23758807318 0.25809239293 0.27890284409 0.30000722004 0.32139314175 0.34304806503 
0.36495928791 0.38711395811 0.40949908051 0.43210152484 0.45490803337 0.47790522865 0.50107962138 0.52441761834 -0.21639762387 
-0.21341369637 -0.20954000459 -0.20478001806 -0.19913800013 -0.19261900415 -0.18522886894 -0.17697421357 -0.16786243144 -0.15790168364 
-0.14710089164 -0.13546972932 -0.12301861429 -0.10975869854 -0.095701858513 -0.080860684394 -0.065248468881 -0.048879195264 -0.031767524902 
-0.013928784093 0.0046210496586 0.023865361944 0.043786916338 0.064367869834 0.085589788825 0.10743366562 0.12987993544 0.15290849401 
0.17649871548 0.20062947095 0.22527914738 0.25042566698 0.27604650691 0.30211871953 0.32861895292 0.35552347179 0.38280817874 
0.41044863585 0.4384200866 0.46669747796 0.49525548292 0.52406852312 0.55311079178 0.58235627679 0.61177878404 0.64135196088 
0.67104931969 0.70084426163 0.73071010047 0.76062008647 0.79054743035 0.82046532728 0.8503469809 0.8801656273 0.90989455902 
0.93950714894 0.96897687415 0.99827733969 1.0273823022 1.0562656935 1.0849016436 1.1132645046 1.1413288727 1.1690696118 
1.1964618755 1.2234811295 1.2501031738 1.2763041638 1.3020606323 1.3273495103 1.3521481474 1.3764343323 1.4001863128 
1.4233828151 1.446003063 1.4680267964 1.4894342893 1.510206368 1.5303244275 1.5497704489 1.5685270151 1.5865773265 
1.6039052162 1.6204951641 1.6363323113 1.6514024729 1.6656921513 1.6791885477 1.6918795738 1.7037538628 1.7148007792 
1.7250104288 1.7343736672 1.742882108 1.7505281306 1.7573048867 1.7632063066 1.7682271046 1.7723627837 1.7756096399 
1.7779647649 1.7794260495 1.7799921847 1.7796626636 1.7784377812 1.7763186346 1.7733071219 1.7694059404 1.7646185843 
1.7589493413 1.7524032892 1.7449862911 1.7367049902 1.7275668036 1.7175799161 1.7067532726 1.6950965701 1.6826202492 
1.6693354843 1.6552541743 1.6403889311 1.624753069 1.6083605925 1.5912261838 1.5733651895 1.5547936071 1.5355280704 
1.5155858349 1.494984762 1.4737433035 1.4518804845 1.4294158868 1.406369631 1.3827623589 1.3586152147 1.3339498259 
1.3087882846 1.283153127 1.2570673135 1.2305542084 1.2036375583 1.1763414716 1.1486903963 1.1207090985 1.0924226401 
1.0638563562 1.0350358325 1.0059868825 0.9767355244 0.94730795747 0.91773053893 0.88802976019 0.85823222315 0.82836461638 
0.79845369118 0.7685262377 0.73860906084 0.70872895632 0.67891268668 0.64918695723 0.61957839225 0.59011351102 0.56081870416 
0.53172020997 0.50284409089 0.47421621022 0.44586220888 0.41780748253 0.39007715876 0.3626960746 0.33568875428 0.30907938728 
0.28289180663 0.25714946759 0.23187542662 0.20709232076 0.18282234733 0.15908724406 0.13590826961 0.11330618454 0.091301232707 
0.069913123142 0.049161012392 0.029063487363 0.0096385486722 -0.0090964054746 -0.027124594865 -0.044429872309 -0.060996738104 -0.076810353915 
-0.091856556065 -0.10612186822 -0.11959351347 -0.13225942574 -0.14410826066 -0.15512940563 -0.16531298945 -0.17464989103 -0.18313174766 
-0.19075096245 -0.19750071114 -0.20337494825 -0.20836841242 -0.21247663119 -0.21569592498 -0.21802341039 -0.21945700278 -0.21999541813 
-0.2196381742 -0.21838559095 -0.21623879029 -0.21319969503 -0.20927102716 -0.20445630546 -0.1987598423 -0.19218673978 -0.18474288519 
-0.17643494573 -0.16727036251 -0.15725734391 -0.14640485823 -0.13472262564 -0.12222110948 -0.10891150691 -0.094805738858 -0.079916439334 
-0.064256944143 -0.04784127892 -0.030684146575 -0.012800914125 0.0057924010743 0.025079145672 0.045042045236 0.065663219729 0.08692419952 
0.10880594193 0.13128884828 0.15435278145 0.17797708393 0.20214059629 0.22682167616 0.2519982176 0.82171608718 0.79675272885 
0.77177892181 0.74681024227 0.72186226326 0.6969505449 0.67209062468 0.6472980078 0.62258815746 0.59797648527 0.57347834158 
0.54910900594 0.52488367757 0.50081746586 0.47692538096 0.45322232442 0.4297230799 0.40644230393 0.3833945168 0.36059409344 
0.33805525456 0.31579205767 0.29381838838 0.27214795173 0.25079426361 0.22977064237 0.2090902005 0.18876583643 0.16881022653 
0.14923581715 0.1300548169 0.11127918901 0.092920643884 0.074990631799 0.057500335741 0.040460664451 0.023882245612 0.0077754192225 
-0.0078497688501 -0.022983573139 -0.037616554654 -0.051739586771 -0.065343860919 -0.078420892081 -0.090962524082 -0.10296093467 -0.11440864042 
-0.12529850136 -0.13562372547 -0.14537787286 -0.15455485987 -0.16314896278 -0.17115482142 -0.185626894 -0.1933438292 -0.20085918206 
-0.20745371524 -0.21265635234 -0.21629628307 0.83348378883 0.81970588621 0.80528476909 0.79018334906 0.77436243396 0.75778081875 
0.7403954904 0.72216199183 0.70303496966 0.68296899337 0.66191970494 0.63984541021 0.61670916437 0.59248145381 0.56714347651 
0.54069103635 0.51313879777 0.48452466305 0.45491364438 0.42440061324 0.39311111493 0.36119965927 0.3288452119 0.29624421545 
0.26360193589 0.23112342639 0.19900530835 0.16742933535 0.13655822926 0.10653374877 0.077476648338 0.049487976446 0.022651203867 
-0.0029652894941 -0.027305695238 -0.050324347527 -0.07198364125 -0.092252235845 -0.11110351235 -0.1285143929 -0.14446436753 -0.15893475419 
-0.17190815441 -0.18336806772 -0.19329865619 -0.20168464046 -0.20851132238 -0.21376473187 -0.21743190245 -0.21950128274 -0.21996329453 
-0.21881105084 -0.21604124334 -0.21165520909 -0.20566016848 -0.19807062345 -0.18890987111 -0.17821156124 -0.16602119587 -0.15239742461 
-0.13741296725 -0.12115497381 -0.10372465637 -0.08523607564 -0.065814051501 -0.045591286646 -0.02470490543 -0.0032926983552 0.018510582247 
0.040576557024 0.062785965459 0.085030636685 0.10721467563 -0.21978151508 -0.21996037908 -0.21925092607 -0.21765374312 -0.21517020704 
-0.21180248327 -0.20755352407 -0.20242706595 -0.19642762641 -0.18956050001 -0.18183175368 -0.17324822148 -0.16381749858 -0.15354793444 
-0.14244862557 -0.13052940736 -0.11780084554 -0.10427422674 -0.08996154847 -0.074875508493 -0.059029493534 -0.042437567513 -0.025114458981 
-0.0070755480204 0.011663147401 0.031084985694 0.051172716364 0.071908495389 0.093273901128 0.11524995068 0.13781711681 0.16095534524 
0.18464407259 0.20886224467 0.23358833519 0.25880036496 0.28447592149 0.3105921789 0.33712591831 0.36405354851 0.39135112694 
0.41899438108 0.44695873012 0.47521930678 0.50375097956 0.53252837502 0.56152590048 0.59071776699 0.62007801208 0.64958052303 
0.67919906009 0.70890727982 0.73867875895 0.76848701755 0.79830554277 0.82810781246 0.85786731868 0.88755759189 0.917152224 
0.94662489208 0.1528696683 0.17852447594 0.20618677136 0.23580223261 0.26729322157 0.30055781448 0.3354695313 0.37187775449 
0.40960886982 0.4484680973 0.48824195562 0.52870128787 0.56960474415 0.61070259836 0.65174076268 0.69246485566 0.7326241801 
0.77197547127 0.81028629915 0.84733801387 0.88292814127 0.91687220423 0.94900489071 0.9791806223 1.0072735653 1.0331770198 
1.0568023472 1.0780775734 1.0969456588 1.1133625735 1.1272953132 1.1387199278 1.147619676 1.153983387 1.157804104 
1.1590780702 1.157804104 1.153983387 1.147619676 1.1387199278 1.1272953132 1.1133625735 1.0969456588 1.0780775734 
1.0568023472 1.0331770198 1.0072735653 1.0091686212 1.0406932642 1.0735445931 1.1074981012 1.1423169107 1.1777544454 
1.2135576014 1.2494702963 1.2852373307 1.320608436 1.3553423764 1.3892109713 1.4220028983 1.4535271413 1.4836159585 
1.5121272659 1.5389463527 1.5639868693 1.5871910674 1.608529286 1.6279987081 1.6456214604 1.6614421038 1.6755246382 
1.6879491311 1.6988080289 1.7082023152 1.7162376444 1.723020511 1.7286545716 1.7332372176 1.7368564601 1.7395881989 
1.741493923 1.7426188823 1.7429907627 1.7426188823 1.741493923 1.7395881989 1.7368564601 1.7332372176 1.7286545716 
1.723020511 1.7162376444 1.7082023152 1.6988080289 1.6879491311 0.36730627745 0.83339433891 0.37362308913 0.69282204647 
0.20735009558 0.93671052494 0.53828020731 1.2794880091 0.18373972135 0.56141425437 0.59651200823 1.0063326674 0.39053268158 
1.1950377265 0.4717801233 0.59127564982 0.10568385173 0.67490544648 0.63594651138 1.2519639168 0.15195564351 0.95520761915 
0.69860095434 1.4795788798 0.19515127637 0.33428970349 0.75827443847 0.92025364669 0.78124602705 0.24160539667 0.80188130992 
0.47308678645 1.0549645966 0.31375356904 0.50357047582 1.1505587409 0.309005922 1.369914739 0.54141928712 0.34554210055 
1.0183404999 0.6416749541 0.48659883673 0.109664933 0.72238562617 1.148697789 0.46928092847 0.78799518618 0.086374781293 
0.69453903946 1.4123708411 0.61482326157 0.26370575048 0.62798168817 0.43127931533 1.1677611574 1.0443594068 0.29604712391 
0.82914412376 1.2803068969 0.42239322241 0.25295229261 1.1084001586 1.4753377324 0.6592586483 0.89395807422 0.20919368178 
0.88821290258 0.068901130742 0.4557026 0.70667739289 0.40109199449 0.57506892428 0.17491641426 0.79541004664 0.35199342553 
0.54751329196 1.1853649638 1.0681652694 0.72929132739 0.29511011352 0.7906106468 0.13800624905 0.97359976187 0.81187091263 
1.5781134506 0.29396280042 0.45201198236 1.0014063722 0.20464792608 0.60321976367 1.3924112637 0.50601628147 1.3575319678 
0.39418675869 0.9778445316 0.35672174084 0.13899397237 0.82308712198 0.60926760216 1.317473486 0.55306996162 1.2742790432 
0.052894035434 0.71194406408 0.85021921192 0.085465229397 0.11840968343 0.75935415112 1.5098114991 0.15342072738 0.64809313444 
0.49292597837 0.80455667575 0.58622551981 1.1219593859 0.31087085939 0.8772834813 0.18052411439 0.67421769916 0.43430695207 
0.99893285195 0.67050272073 0.24013890384 0.91056484301 0.98701380212 0.25694749767 1.1457641394 0.47711249661 0.50200668383 
1.2915088187 1.3693210587 0.65070171047 0.21094240776 1.069846578 1.5468841309 0.75458631729 0.89656122099 0.22528781305 
0.51952479061 1.0009033762 1.057798732 0.26648944144 0.12280625886 0.65216266363 0.71013353248 0.66075216126 0.24986620828 
0.56442067988 1.159131699 0.33898527915 0.75080992089 1.2964504441 0.46561270106 0.5440062205 1.2469561356 0.37967753064 
1.4560467323 0.62191782538 0.90062121132 0.14449507374 0.64703041054 1.4058873867 0.39306931406 0.37228814404 1.1150583673 
0.55514991122 0.4804755811 0.71451986983 0.32797260815 1.1985510607 1.0835709385 0.41724822864 0.36991797239 0.58040451584 
0.057427201423 0.75876177261 0.43429319612 0.26065085943 0.14586818425 0.7136970674 0.8718213661 0.93397118802 0.28882821589 
0.39192376671 1.1548831937 0.92159345531 0.039239015189 0.73245425786 0.5990353002 1.189625088 0.56615066694 0.35101459983 
0.43573109799 1.2273664097 0.043593103636 0.47408457269 0.74417096696 0.75135392297 1.4745603654 0.50722224765 0.71733541252 
1.0705110476 0.19431532707 0.52957674486 1.1001681159 0.073379085574 0.096204273402 0.79071210638 0.65600717591 1.3336730006 
0.84344457862 0.54635802176 0.73233091927 0.96021034702 0.45923349167 1.2306578476 0.25817791141 1.0948560453 1.4040839549 
0.59001583708 0.82009625267 0.63008382581 0.63030592278 0.27249033417 0.86252137139 0.089334519081 0.88794219272 1.3475520868 
0.48522251401 0.10109905964 0.81143492334 1.5682872979 0.14675433673 0.73994759223 0.65500721282 0.30024983082 0.26784202312 
0.5068539457 0.32304015073 1.4277324444 0.58228806172 0.65349611927 0.43198131697 0.42244850388 1.2604667486 0.82977678694 
0.48592072413 1.2288774425 0.80965096419 0.22156082873 0.4370032862 0.8165934391 0.9767258712 0.17683096724 0.92256258569 
1.3444880081 0.59028763964 0.049894367629 0.13208076711 0.88071944661 1.623775054 0.76971627394 0.20972464832 1.0407943056 
1.4590305134 0.65607576359 1.0454165432 0.32595229169 0.76794961272 0.42990253894 0.26649147543 1.1371322497 1.5299845251 
0.723662862 1.115261072 0.34290070865 0.90500354201 0.54091040881 1.0758952337 0.19389203406 0.10873556343 0.84995051155 
0.69832027159 1.446834398 0.97956662035 0.95841832842 0.24791528751 0.93298354424 0.27757596086 1.0593958053 0.12427707173 
0.76066310315 1.5311935695 0.39555422087 1.2111474044 0.36239935051 0.43644644891 0.55114233475 1.3328063177 0.22230367154 
0.62649614729 0.13722929424 0.75927097585 0.59649564355 1.2531458003 1.3095385534 0.44121153591 0.5110536661 0.6710625608 
1.0481592667 0.18894733219 1.5852291807 0.81219678866 0.15652547901 0.074149644812 0.17458954402 0.85754165949 0.56094314963 
1.2654244681 0.68215339083 0.34904495532 0.95177548569 0.35245229844 0.70192637829 0.21423168354 0.82564252558 0.39976895394 
0.27893651195 1.4352938444 0.32308914461 1.3432931187 0.034040232552 0.7570368739 0.57547673965 0.67472956901 0.22439232422 
0.67657703676 1.1339030498 0.5019647618 0.16238282483 0.99758723327 0.22205673231 0.63504454413 1.300312293 0.80810847251 
0.70299154715 0.091554617886 0.3693450869 0.98635396981 0.40395028708 0.63462074509 0.72209389698 0.38470807911 0.73137752925 
1.0843466521 0.363121482 0.6772736322 1.4983940555 0.1855311481 0.56390425722 0.42873345848 1.0501800669 0.89761776076 
1.3027671239 0.4906827704 1.0419190239 1.1203043206 0.32439297027 0.43238648382 0.31493373745 0.81833054706 0.30682358118 
1.1804873409 0.22254897952 0.55315408054 0.49405853822 0.14828640154 0.71202395668 0.5812415532 1.1842969523 0.31278402641 
0.57951812097 0.38835152335 0.27864088831 0.97482244627 0.80866290623 0.42909829106 0.52903053025 0.8217525433 1.3805674208 