# vtk DataFile Version 4.2
vtk output
ASCII
DATASET UNSTRUCTURED_GRID
POINTS 21283 float
0.000159205 0.0459595 1e-07 0.0910679 0.0459595 1e-07 0.000159205 0.0459595 0.0909088 
0.00016037 0.0462879 0.0909088 0.0910679 0.0459595 0.0909088 0.00387147 0.0486486 0.999996 
0.000160265 0.0467696 0.999996 0.00230119 0.0432031 0.999996 0.0412046 0.0349339 0.999996 
0.000161941 0.0467691 0.272726 0.000140272 0.0463638 0.272726 0.0114969 0.0345959 0.272726 
0.170587 0.0345959 0.272726 0.013112 0.0572077 0.272726 0.000332173 0.0499211 1e-07 
0.000849759 0.0538525 1e-07 0.00170802 0.0577239 1e-07 0.00290044 0.0615058 1e-07 
0.00441792 0.0651693 1e-07 0.00624893 0.0686866 1e-07 0.00837953 0.072031 1e-07 
0.0107935 0.0751769 1e-07 0.0134725 0.0781005 1e-07 0.0163961 0.0807795 1e-07 
0.019542 0.0831935 1e-07 0.0228864 0.0853241 1e-07 0.0264037 0.0871551 1e-07 
0.0300673 0.0886726 1e-07 0.0338491 0.089865 1e-07 0.0377205 0.0907233 1e-07 
0.0416519 0.0912408 1e-07 0.0456136 0.0914138 1e-07 0.0495752 0.0912408 1e-07 
0.0535066 0.0907233 1e-07 0.057378 0.089865 1e-07 0.0611599 0.0886726 1e-07 
0.0648234 0.0871551 1e-07 0.0683407 0.0853241 1e-07 0.0716851 0.0831935 1e-07 
0.0748311 0.0807795 1e-07 0.0777546 0.0781005 1e-07 0.0804336 0.0751769 1e-07 
0.0828476 0.072031 1e-07 0.0849782 0.0686866 1e-07 0.0868092 0.0651693 1e-07 
0.0883267 0.0615058 1e-07 0.0895191 0.0577239 1e-07 0.0903774 0.0538525 1e-07 
0.0908949 0.0499211 1e-07 0.000159205 0.0459595 0.00395265 0.000159205 0.0459595 0.0079052 
0.000159205 0.0459595 0.0118578 0.000159205 0.0459595 0.0158103 0.000159205 0.0459595 0.0197629 
0.000159205 0.0459595 0.0237154 0.000159205 0.0459595 0.027668 0.000159205 0.0459595 0.0316205 
0.000159205 0.0459595 0.0355731 0.000159205 0.0459595 0.0395256 0.000159205 0.0459595 0.0434782 
0.000159205 0.0459595 0.0474307 0.000159205 0.0459595 0.0513833 0.000159205 0.0459595 0.0553358 
0.000159205 0.0459595 0.0592884 0.000159205 0.0459595 0.0632409 0.000159205 0.0459595 0.0671935 
0.000159205 0.0459595 0.071146 0.000159205 0.0459595 0.0750986 0.000159205 0.0459595 0.0790511 
0.000159205 0.0459595 0.0830037 0.000159205 0.0459595 0.0869562 0.000159502 0.0461237 0.0909088 
0.000361122 0.0502391 0.0909088 0.000904669 0.0541578 0.0909088 0.00178691 0.0580145 0.0909088 
0.00300118 0.0617798 0.0909088 0.00453825 0.0654253 0.0909088 0.0063865 0.0689233 0.0909088 
0.00853193 0.0722473 0.0909088 0.0109583 0.0753722 0.0909088 0.0136471 0.0782743 0.0909088 
0.0165782 0.0809315 0.0909088 0.0197292 0.0833238 0.0909088 0.0230763 0.0854331 0.0909088 
0.0265941 0.0872433 0.0909088 0.030256 0.0887408 0.0909088 0.0340343 0.0899142 0.0909088 
0.0379003 0.0907546 0.0909088 0.0418247 0.0912556 0.0909088 0.0457778 0.0914135 0.0909088 
0.0497297 0.0912271 0.0909088 0.0536503 0.0906977 0.0909088 0.0575101 0.0898294 0.0909088 
0.0612798 0.0886287 0.0909088 0.0649308 0.0871048 0.0909088 0.0684355 0.0852692 0.0909088 
0.0717672 0.0831358 0.0909088 0.0749009 0.0807208 0.0909088 0.0778126 0.0780424 0.0909088 
0.0804805 0.075121 0.0909088 0.0828842 0.0719787 0.0909088 0.0850055 0.0686392 0.0909088 
0.0868284 0.0651279 0.0909088 0.0883391 0.0614715 0.0909088 0.0895262 0.0576975 0.0909088 
0.0903805 0.0538345 0.0909088 0.0908957 0.049912 0.0909088 0.0910679 0.0459595 0.00395265 
0.0910679 0.0459595 0.0079052 0.0910679 0.0459595 0.0118578 0.0910679 0.0459595 0.0158103 
0.0910679 0.0459595 0.0197629 0.0910679 0.0459595 0.0237154 0.0910679 0.0459595 0.027668 
0.0910679 0.0459595 0.0316205 0.0910679 0.0459595 0.0355731 0.0910679 0.0459595 0.0395256 
0.0910679 0.0459595 0.0434782 0.0910679 0.0459595 0.0474307 0.0910679 0.0459595 0.0513833 
0.0910679 0.0459595 0.0553358 0.0910679 0.0459595 0.0592884 0.0910679 0.0459595 0.0632409 
0.0910679 0.0459595 0.0671935 0.0910679 0.0459595 0.071146 0.0910679 0.0459595 0.0750986 
0.0910679 0.0459595 0.0790511 0.0910679 0.0459595 0.0830037 0.0910679 0.0459595 0.0869562 
0.00160779 0.0485161 0.999996 0.000455632 0.0445206 0.999996 0.00619154 0.0423762 0.999996 
0.0100819 0.0415493 0.999996 0.0139722 0.0407224 0.999996 0.0178626 0.0398954 0.999996 
0.0217529 0.0390685 0.999996 0.0256433 0.0382416 0.999996 0.0295336 0.0374147 0.999996 
0.0334239 0.0365878 0.999996 0.0373143 0.0357609 0.999996 0.0374713 0.0363054 0.999996 
0.033738 0.0376769 0.999996 0.0300047 0.0390483 0.999996 0.0262714 0.0404198 0.999996 
0.022538 0.0417913 0.999996 0.0188047 0.0431627 0.999996 0.0150714 0.0445342 0.999996 
0.0113381 0.0459057 0.999996 0.00760478 0.0472771 0.999996 0.000149524 0.0465665 0.272726 
0.00790852 0.0351773 0.272726 0.00468736 0.0368621 0.272726 0.00216304 0.0394779 0.272726 
0.000593895 0.042757 0.272726 0.0154741 0.0345959 0.272726 0.0194514 0.0345959 0.272726 
0.0234287 0.0345959 0.272726 0.0274059 0.0345959 0.272726 0.0313832 0.0345959 0.272726 
0.0353604 0.0345959 0.272726 0.0393377 0.0345959 0.272726 0.0433149 0.0345959 0.272726 
0.0472922 0.0345959 0.272726 0.0512694 0.0345959 0.272726 0.0552467 0.0345959 0.272726 
0.059224 0.0345959 0.272726 0.0632012 0.0345959 0.272726 0.0671785 0.0345959 0.272726 
0.0711557 0.0345959 0.272726 0.075133 0.0345959 0.272726 0.0791102 0.0345959 0.272726 
0.0830875 0.0345959 0.272726 0.0870647 0.0345959 0.272726 0.091042 0.0345959 0.272726 
0.0950193 0.0345959 0.272726 0.0989965 0.0345959 0.272726 0.102974 0.0345959 0.272726 
0.106951 0.0345959 0.272726 0.110928 0.0345959 0.272726 0.114906 0.0345959 0.272726 
0.118883 0.0345959 0.272726 0.12286 0.0345959 0.272726 0.126837 0.0345959 0.272726 
0.130815 0.0345959 0.272726 0.134792 0.0345959 0.272726 0.138769 0.0345959 0.272726 
0.142746 0.0345959 0.272726 0.146724 0.0345959 0.272726 0.150701 0.0345959 0.272726 
0.154678 0.0345959 0.272726 0.158655 0.0345959 0.272726 0.162633 0.0345959 0.272726 
0.16661 0.0345959 0.272726 0.169888 0.0345977 0.276657 0.169188 0.0345995 0.280589 
0.168489 0.0346013 0.28452 0.16779 0.0346032 0.288451 0.16709 0.034605 0.292382 
0.166391 0.0346068 0.296313 0.165692 0.0346087 0.300245 0.164992 0.0346105 0.304176 
0.164293 0.0346123 0.308107 0.163593 0.0346141 0.312038 0.162894 0.034616 0.315969 
0.162195 0.0346178 0.3199 0.161495 0.0346196 0.323832 0.160796 0.0346215 0.327763 
0.160097 0.0346233 0.331694 0.159397 0.0346251 0.335625 0.158698 0.0346269 0.339556 
0.157999 0.0346288 0.343488 0.157299 0.0346306 0.347419 0.1566 0.0346324 0.35135 
0.1559 0.0346342 0.355281 0.155201 0.0346361 0.359212 0.154502 0.0346379 0.363144 
0.153802 0.0346397 0.367075 0.153103 0.0346416 0.371006 0.152404 0.0346434 0.374937 
0.151704 0.0346452 0.378868 0.151005 0.034647 0.382799 0.150306 0.0346489 0.386731 
0.149606 0.0346507 0.390662 0.148907 0.0346525 0.394593 0.148207 0.0346543 0.398524 
0.147508 0.0346562 0.402455 0.146809 0.034658 0.406387 0.146109 0.0346598 0.410318 
0.14541 0.0346617 0.414249 0.144711 0.0346635 0.41818 0.144011 0.0346653 0.422111 
0.143312 0.0346671 0.426042 0.142613 0.034669 0.429974 0.141913 0.0346708 0.433905 
0.141214 0.0346726 0.437836 0.140514 0.0346744 0.441767 0.139815 0.0346763 0.445698 
0.139116 0.0346781 0.44963 0.138416 0.0346799 0.453561 0.137717 0.0346818 0.457492 
0.137018 0.0346836 0.461423 0.136318 0.0346854 0.465354 0.135619 0.0346872 0.469286 
0.13492 0.0346891 0.473217 0.13422 0.0346909 0.477148 0.133521 0.0346927 0.481079 
0.132821 0.0346945 0.48501 0.132122 0.0346964 0.488941 0.131423 0.0346982 0.492873 
0.130723 0.0347 0.496804 0.130024 0.0347019 0.500735 0.129325 0.0347037 0.504666 
0.128625 0.0347055 0.508597 0.127926 0.0347073 0.512529 0.127227 0.0347092 0.51646 
0.126527 0.034711 0.520391 0.125828 0.0347128 0.524322 0.125128 0.0347147 0.528253 
0.124429 0.0347165 0.532185 0.12373 0.0347183 0.536116 0.12303 0.0347201 0.540047 
0.122331 0.034722 0.543978 0.121632 0.0347238 0.547909 0.120932 0.0347256 0.55184 
0.120233 0.0347274 0.555772 0.119533 0.0347293 0.559703 0.118834 0.0347311 0.563634 
0.118135 0.0347329 0.567565 0.117435 0.0347348 0.571496 0.116736 0.0347366 0.575428 
0.116037 0.0347384 0.579359 0.115337 0.0347402 0.58329 0.114638 0.0347421 0.587221 
0.113939 0.0347439 0.591152 0.113239 0.0347457 0.595084 0.11254 0.0347475 0.599015 
0.11184 0.0347494 0.602946 0.111141 0.0347512 0.606877 0.110442 0.034753 0.610808 
0.109742 0.0347549 0.614739 0.109043 0.0347567 0.618671 0.108344 0.0347585 0.622602 
0.107644 0.0347603 0.626533 0.106945 0.0347622 0.630464 0.106246 0.034764 0.634395 
0.105546 0.0347658 0.638327 0.104847 0.0347676 0.642258 0.104147 0.0347695 0.646189 
0.103448 0.0347713 0.65012 0.102749 0.0347731 0.654051 0.102049 0.034775 0.657983 
0.10135 0.0347768 0.661914 0.100651 0.0347786 0.665845 0.0999513 0.0347804 0.669776 
0.0992519 0.0347823 0.673707 0.0985525 0.0347841 0.677638 0.0978532 0.0347859 0.68157 
0.0971538 0.0347877 0.685501 0.0964544 0.0347896 0.689432 0.0957551 0.0347914 0.693363 
0.0950557 0.0347932 0.697294 0.0943564 0.0347951 0.701226 0.093657 0.0347969 0.705157 
0.0929576 0.0347987 0.709088 0.0922583 0.0348005 0.713019 0.0915589 0.0348024 0.71695 
0.0908595 0.0348042 0.720882 0.0901602 0.034806 0.724813 0.0894608 0.0348078 0.728744 
0.0887614 0.0348097 0.732675 0.0880621 0.0348115 0.736606 0.0873627 0.0348133 0.740537 
0.0866633 0.0348152 0.744469 0.085964 0.034817 0.7484 0.0852646 0.0348188 0.752331 
0.0845652 0.0348206 0.756262 0.0838659 0.0348225 0.760193 0.0831665 0.0348243 0.764125 
0.0824671 0.0348261 0.768056 0.0817678 0.034828 0.771987 0.0810684 0.0348298 0.775918 
0.0803691 0.0348316 0.779849 0.0796697 0.0348334 0.783781 0.0789703 0.0348353 0.787712 
0.078271 0.0348371 0.791643 0.0775716 0.0348389 0.795574 0.0768722 0.0348407 0.799505 
0.0761729 0.0348426 0.803436 0.0754735 0.0348444 0.807368 0.0747741 0.0348462 0.811299 
0.0740748 0.0348481 0.81523 0.0733754 0.0348499 0.819161 0.072676 0.0348517 0.823092 
0.0719767 0.0348535 0.827024 0.0712773 0.0348554 0.830955 0.0705779 0.0348572 0.834886 
0.0698786 0.034859 0.838817 0.0691792 0.0348608 0.842748 0.0684799 0.0348627 0.84668 
0.0677805 0.0348645 0.850611 0.0670811 0.0348663 0.854542 0.0663818 0.0348682 0.858473 
[...]
POINT_DATA 21283
SCALARS scalars double
LOOKUP_TABLE default
1.6755246382 0.9791806223 0.9791806223 0.97594938187 0.12925491957 0.32674332908 0.2776476709 0.26537269646 0.54790553034 
-0.21848899462 -0.21871453724 -0.21891455992 0.84665342709 -0.17856744253 1.6563652025 1.634076383 1.6085292907 1.5796627677 
1.5474942482 1.5121272657 1.4737551654 1.432660621 1.3892109713 1.3438495893 1.2970838286 1.2494702966 1.2015983802 
1.1540730732 1.1074980934 1.0624603132 1.0195161489 0.9791806223 0.94191931266 0.9081432933 0.87820685115 0.85240758947 
0.83098839832 0.81414061058 0.80200775926 0.79468923353 0.79224332568 0.79468923353 0.80200775926 0.81414061058 0.83098839832 
0.85240758947 0.87820685115 0.9081432933 0.94191931266 1.6572404552 1.6375859669 1.6165918748 1.5942909729 1.5707180969 
1.5459100689 1.5199056407 1.4927454328 1.4644718713 1.4351291213 1.4047630178 1.3734209949 1.3411520106 1.3080064713 
1.2740361522 1.2392941173 1.2038346358 1.1677130977 1.130985927 1.093710494 1.0559450253 1.017748513 0.97756806161 
0.93507787819 0.89085500886 0.84365138037 0.79389819526 0.74208227173 0.68873781936 0.63443511962 0.57976655964 0.52533080025 
0.47171600147 0.4194831582 0.36915058703 0.32118053009 0.27596870841 0.23383740656 0.19503243614 0.15972396274 0.12801106154 
0.099929493471 0.075462062408 0.054550792704 0.037110100825 0.023040126206 0.012239423219 0.0046163455349 9.8501717768e-05 -0.0013601746761 
0.00022492455396 0.0048705131741 0.012623856209 0.023558302519 0.037766108106 0.055348890707 0.076406177681 0.10102267354 0.94030159884 
0.9011721741 0.86185347072 0.82240690701 0.78289410102 0.74337677426 0.70391665531 0.66457538338 0.62541441204 0.58649491321 
0.54787768162 0.50962303985 0.47179074407 0.43443989075 0.39762882427 0.36141504588 0.32585512379 0.29100460487 0.25691792783 
0.22364833823 0.19124780529 0.1597669407 0.30551630372 0.26085193696 0.29187628318 0.31883791738 0.34623229869 0.37403372067 
0.40221609491 0.43075297552 0.45961758394 0.48878283409 0.51822135777 0.52499883542 0.50223438219 0.47962486884 0.45718290712 
0.43492101536 0.41285161139 0.39098700573 0.36933939461 0.34792085325 -0.21860483282 -0.21986342217 -0.21999932233 -0.21999783916 
-0.21981610727 -0.21627247472 -0.21205463735 -0.20626771897 -0.19892087242 -0.19002571784 -0.17959632422 -0.1676491872 -0.15420320294 
-0.13927963824 -0.12290209694 -0.10509648253 -0.085890957227 -0.065315897403 -0.043403845558 -0.02018945884 0.0042905457675 0.029997449519 
0.056890593147 0.08492744117 0.11406364917 0.14425313393 0.17544814631 0.2075993468 0.24065588351 0.27456547266 0.30927448121 
0.34472801173 0.38086998924 0.41764324984 0.45498963119 0.49285006448 0.53116466783 0.56987284103 0.60891336139 0.64822448055 
0.68774402218 0.72740948026 0.76715811803 0.80692706712 0.87887754661 0.91099828393 0.94298205495 0.97479541878 1.0064051127 
1.037778087 1.0688815393 1.0996829493 1.1301501122 1.1602511728 1.1899546589 1.2192295135 1.2480451283 1.2763713747 
1.3041786361 1.3314378384 1.3581204805 1.384198664 1.4096451229 1.4344332513 1.4585371318 1.4819315624 1.5045920829 
1.5264950003 1.547617414 1.5679372392 1.5874332303 1.6060850032 1.6238730564 1.6407787913 1.6567845322 1.671873544 
1.6860300503 1.6992392497 1.7114873312 1.7227614887 1.7330499344 1.7423419112 1.7506277037 1.7578986488 1.7641471441 
1.7693666565 1.7735517288 1.7766979851 1.778802136 1.7798619813 1.779876413 1.7788454159 1.7767700681 1.7736525394 
1.7694960893 1.7643050638 1.7580848903 1.7508420723 1.7425841827 1.7333198555 1.7230587772 1.7118116763 1.6995903122 
1.6864074632 1.6722769127 1.6572134349 1.6412327797 1.6243516556 1.606587713 1.587959525 1.5684865685 1.5481892036 
1.5270886524 1.5052069767 1.482567055 1.4591925588 1.4351079274 1.4103383427 1.3849097028 1.3588485947 1.3321822668 
1.3049386003 1.2771460802 1.248833765 1.2200312569 1.1907686706 1.1610766019 1.1309860956 1.1005286129 1.0697359989 
1.0386404492 1.007274476 0.97567087404 0.94386268688 0.91188317178 0.87976576519 0.84754404771 0.815251709 0.7829225126 
0.75059026054 0.71828875806 0.68605177827 0.65391302678 0.62190610654 0.59006448262 0.55842144729 0.52701008518 0.49586323869 
0.46501347365 0.43449304528 0.40433386446 0.37456746435 0.34522496745 0.31633705305 0.28793392513 0.26004528081 0.23270027928 
0.20592751133 0.17975496944 0.15421001851 0.12931936728 0.10510904035 0.081604351045 0.058829874861 0.03680942384 0.015566021637 
-0.0048781205382 -0.024501627151 -0.043283980687 -0.061205543108 -0.078247576381 -0.094392262074 -0.10962271998 -0.12392302578 -0.13727822766 
-0.149674362 -0.16109846791 -0.17153860083 -0.180983845 -0.18942432486 -0.19685121541 -0.2032567514 -0.20863423547 -0.21297804515 
-0.21628363874 -0.21854756004 -0.219767442 -0.21994200916 -0.21907107899 -0.21715556211 -0.2141974613 -0.21019986942 -0.2051669662 
-0.19910401381 -0.19201735143 -0.18391438858 -0.17480359738 -0.16469450367 -0.15359767711 -0.14152472008 -0.12848825554 -0.11450191388 
-0.099580318624 -0.083739071172 -0.066994734463 -0.04936481567 -0.030867747898 -0.0115228709 0.0086495891313 0.029628540721 0.05139204916 
0.073917359438 0.097180920037 0.12115840756 0.14582475215 0.17115416371 0.19712015888 0.22369558871 0.25085266704 0.27856299957 
0.30679761355 0.33552698805 0.36472108484 0.3943493798 0.42438089484 0.45478423026 0.48552759762 0.51657885294 -0.21549683083 
-0.21091516218 -0.20475142355 -0.19701545579 -0.18771960997 -0.17687872758 -0.16451011692 -0.15063352538 -0.13527110799 -0.11844739198 
-0.10018923768 -0.080525795586 -0.059488459859 -0.037110818172 -0.013428598098 0.01152038993 0.037696312992 0.065057379274 0.093559904791 
0.12315838314 0.15380555813 0.18545249927 0.21804867985 0.25154205765 0.28587915797 0.32100515909 0.35686397972 0.39339836857 
0.43054999578 0.46825954598 0.50646681308 0.54511079633 0.58412979771 0.62346152048 0.66304316861 0.70281154706 0.74270316262 
0.78265432537 0.82260125029 0.86248015914 0.90222738226 0.94177946024 0.98107324525 1.0200460018 1.058635507 1.0967801499 
1.1344190296 1.1714920528 1.2079400298 1.2437047686 1.2787291682 1.3129573094 1.3463345445 1.3788075843 1.4103245831 
1.4408352216 1.4702907874 1.4986442525 1.5258503484 1.5518656386 1.5766485877 1.6001596279 1.622361222 1.6432179236 
1.6626964334 1.6807656525 1.697396732 1.7125631192 1.7262405997 1.7384073366 1.7490439046 1.7581333218 1.7656610761 
1.771615149 1.7759860343 1.7787667536 1.7799528672 1.7795424815 1.7775362516 1.7739373807 1.7687516146 1.7619872328 
1.7536550351 1.7437683245 1.7323428858 1.7193969607 1.7049512182 1.6890287221 1.6716548939 1.652857472 1.6326664681 
1.6111141186 1.5882348333 1.5640651409 1.5386436299 1.5120108878 1.4842094357 1.4552836607 1.4252797449 1.3942455919 
1.36223075 1.3292863332 1.2954649398 1.2608205682 1.2254085307 1.1892853652 1.1525087451 1.115137387 1.0772309571 
1.0388499757 1.0000557211 0.96091013104 0.92147570449 0.88181540143 0.84199254248 0.80207070781 0.76211363561 0.72218512033 
0.68234891081 0.64266860854 0.60320756609 0.56402878595 0.52519481996 0.48676766946 0.44880868625 0.41137847468 0.37453679488 
0.33834246734 0.302853279 0.268125891 0.23421574821 0.2011769907 0.16906236731 0.13792315143 0.10780905914 0.078768169844 
0.050846849483 0.024089676529 -0.0014606291947 -0.025763274719 -0.048779459058 -0.070472435154 -0.090807568555 -0.1097523927 -0.12727666077 
-0.14335239395 -0.15795392615 -0.17105794492 -0.18264352873 -0.19269218032 -0.20118785627 -0.2081169926 -0.21346852643 -0.21723391363 
-0.21940714249 -0.21998474328 -0.21896579382 -0.21635192093 -0.21214729787 -0.20635863762 -0.19899518221 -0.19006868795 -0.17959340665 
-0.16758606289 -0.15406582727 -0.13905428588 -0.12257540574 -0.10465549663 -0.08532316901 -0.064609288392 -0.042546926028 -0.019171306127 
0.0054802503911 0.031368385476 0.058451766789 0.086687153692 0.11602946628 0.14643185737 0.17784578726 0.21022110129 0.24350610983 
0.81298107463 0.77927123428 0.74556222227 0.71189235393 0.67829990008 0.64482304354 0.61149983576 0.57836815352 0.54546565593 
0.51282974156 0.480497506 0.44850569966 0.41689068598 0.38568840015 0.3549343082 0.32466336675 0.29490998324 0.26570797681 
0.23709053991 0.2090902005 0.18173878515 0.15506738282 0.12910630953 0.10388507391 0.079432343644 0.055775912916 0.032942670779 
0.010958570616 -0.010151399368 -0.030363244546 -0.049653991145 -0.068001712356 -0.085385553261 -0.10178575453 -0.1171836749 -0.13156181233 
-0.14490382393 -0.15719454452 -0.16842000385 -0.18868444565 -0.1994097909 -0.20861549339 -0.21502623949 0.82879464344 0.80981307463 
0.78962088488 0.76812334966 0.7452191594 0.72080160809 0.6947605589 0.66698599709 0.63737365865 0.60583329601 0.57230033399 
0.53675116074 0.49922119458 0.45982370613 0.41876520751 0.37635173456 0.33298097277 0.28911862585 0.24526284945 0.20190534357 
0.15949837252 0.11843376166 0.079034869281 0.041558817864 0.0062048486801 -0.026874810377 -0.057564120433 -0.085773680903 -0.11143299361 
-0.13448442818 -0.15487883373 -0.17257241124 -0.18752468915 -0.19969739401 -0.20905411904 -0.21556073793 -0.21918657717 -0.21990640462 
-0.21770332092 -0.21257264822 -0.20452685118 -0.1936014494 -0.17986162735 -0.1634089937 -0.14438753358 -0.12298747474 -0.09944564834 
-0.074041173032 -0.047086075694 -0.01891160525 0.010147887077 0.039770953872 0.06966254046 0.099563405176 -0.21993744962 -0.21959842659 
-0.21769789572 -0.21423872728 -0.20922623011 -0.20266814359 -0.19457462604 -0.18495823882 -0.17383392736 -0.16121899763 -0.14713308972 
-0.13159814701 -0.11463838224 -0.0962802398 -0.07655235437 -0.055485506617 -0.033112574677 -0.0094684833635 0.01540985085 0.041483577212 
0.068711971559 0.09705250002 0.12646088542 0.15689117676 0.18829582092 0.22062573729 0.25383039453 0.28785788969 0.32265502958 
0.35816741408 0.39433952127 0.43111479473 0.46843573172 0.50624397383 0.54448039802 0.58308520956 0.62199803577 0.66115802036 
0.70050391957 0.73997419708 0.77950712189 0.8190408638 0.85851359131 0.8978635682 0.93702925008 0.16119578188 0.19674583114 
0.23580222565 0.27819009464 0.32365808992 0.37187775482 0.42244678354 0.47489623677 0.52870128787 0.58329492595 0.63808374835 
0.69246485531 0.74584278877 0.79764543835 0.84733802215 0.89443429937 0.93850465082 0.9791806223 1.0161560665 1.0491851253 
1.0780775688 1.1026921539 1.1229287303 1.1387199279 1.1500231137 1.1568133757 1.1590780702 1.1568133757 1.1500231137 
1.1387199279 1.1229287303 1.1026921539 1.0780775688 1.0491851253 1.0161560665 1.0195161489 1.0624603132 1.1074980934 
1.1540730732 1.2015983802 1.2494702966 1.2970838286 1.3438495893 1.3892109713 1.432660621 1.4737551654 1.5121272657 
1.5474942482 1.5796627677 1.6085292907 1.634076383 1.6563652025 1.6755246382 1.6917378716 1.7052271505 1.7162376428 
1.7250212067 1.7318208354 1.7368564601 1.7403126361 1.742328566 1.7429907627 1.742328566 1.7403126361 1.7368564601 
1.7318208354 1.7250212067 1.7162376428 1.7052271505 1.6917378716 0.83306531134 0.36762409997 0.37007864358 0.68611895342 
0.20733569567 0.93618565633 0.53808081728 1.2791506229 0.18651984392 0.57025705569 0.59479166171 1.0088809617 1.1829322664 
0.3821559809 0.59456443015 0.41778555071 0.10519003427 0.67975078816 0.63667610644 1.25398518 0.15485210435 0.96362162682 
0.70194766965 1.4847663044 0.3276331959 0.1872213988 0.90663262881 0.74800476689 0.52358539793 0.24533982428 0.80197774031 
0.47282906315 1.0544290921 0.62196052151 0.80801244215 1.1548862525 0.31142869311 0.54195839603 1.3704248992 0.34626998354 
1.0106666292 0.29582498233 0.41944431732 1.0841094456 0.088186732999 0.69655289429 0.27161685649 0.085850888936 0.78313306992 
0.69504315928 1.4127632128 0.56719447174 0.44444666131 0.82774696476 1.1763614718 0.44034600247 1.0328977598 0.28986565336 
0.6417062598 1.2772788754 0.41956552181 0.46746362117 1.1004924096 0.24869647856 1.4677028821 0.65251130489 0.20230707037 
0.88004232819 0.46043456198 0.51207514055 1.2115495868 0.69935163043 0.69366268579 0.10659575503 0.76005544277 0.1749228096 
0.80308295677 0.54762520286 1.1909011413 0.42155360668 0.14395134208 0.28788091191 0.81980062576 0.77956077108 1.585027932 
0.98441110453 0.73216021352 0.90669201382 0.20525823896 1.0049488132 0.6080529072 1.400245728 0.5085487327 1.3605422442 
0.14048647773 0.39491981888 0.98094400831 0.60571602727 1.3114109037 0.82248372935 0.48941400085 0.051206759315 0.8501901082 
0.084793335722 0.76075973495 0.71378921104 1.5110701893 0.64647479388 1.3505970336 0.28907317405 1.0151022106 0.15133749108 
0.36285928427 0.6457294925 0.58653944481 1.1253746505 0.31177628718 0.88162938863 0.43983121056 0.16192517622 0.97183281488 
0.68140710339 0.23221157148 0.23867447285 0.90160330102 0.13616914081 0.83677589451 0.47784787303 0.050061042893 1.1596004831 
0.71907310171 1.2918720456 0.50319572864 0.53848009099 0.20750099902 0.67377079587 1.0638669178 0.74769022387 1.0012805425 
1.541109166 0.52104604784 0.2667153549 1.0577393366 0.52366152869 1.0985491555 0.5997908771 0.48510964062 0.54928952227 
0.89252862826 0.50014452116 0.28961477893 1.146825415 0.3336859529 1.2994772596 0.46946400234 1.1984737565 0.32917428291 
1.4521934146 0.61837849254 0.89427886811 0.14016214931 0.65222068501 1.4097658687 0.59745179044 0.37966099643 1.1248147366 
0.69867084708 0.24701900211 0.35269853096 0.41527234569 1.0843543411 1.2556434042 0.38724951891 0.25623212444 1.1720047364 
0.3444487126 0.4082040924 0.79829167031 0.063244860505 0.76400863538 0.92904836253 0.28938928099 0.21865976415 0.35899953269 
0.82566943624 0.96281773927 0.62511789146 0.54385556012 1.3049279017 0.10749316293 0.64699522629 0.73080951491 0.7788584528 
0.75607339727 0.13549245012 0.19868563569 0.65355444859 0.73249145033 0.043471022687 1.0881370932 0.7439780375 0.52953698936 
1.4329462766 1.2256944712 0.43470555127 0.21700935632 0.71845699864 0.095602625326 0.73623459316 0.65733201602 1.3340207517 
0.33307332679 1.1044451125 0.61043088441 0.43896089153 0.41894847471 1.0933716397 0.63749596538 1.4050437363 0.25850265302 
0.5900001179 0.74785090936 0.22544741063 0.80653822183 0.5916045201 1.1914420926 0.36424196551 0.99515281907 0.088437471268 
0.81734870933 1.5689076692 0.89427553414 0.48710219533 1.3493746643 0.6374088454 0.51971958239 0.89512748497 0.42906592025 
1.2705833211 0.42331803695 0.32131685308 0.57707630953 1.4230680677 0.38642791096 0.041157433496 0.75597651598 0.582960136 
1.2386206647 0.48774594925 0.13217074494 0.052751913612 0.8813461112 0.47318801274 0.26269552744 1.624186108 0.86626731181 
0.77114971016 0.52930362522 1.4970502551 0.97763065954 0.92165513536 0.17683847219 0.59104406499 1.3486409854 0.15095280888 
0.67837323238 0.10968816588 0.7024401907 1.1284660984 0.25908604724 1.5320684307 0.72744730543 0.68549026523 1.4555948936 
0.86432742415 0.20229142691 1.0301387309 0.66097502224 1.4614175579 1.0432392125 0.90162463548 0.32551345669 1.1225288439 
0.68398557792 0.34534489984 0.10106020799 0.11339288458 0.71079878032 0.82651268377 0.98479967734 0.25082844628 0.12420113856 
0.93327261964 0.76074837001 1.5312980466 1.2236983642 0.29283984248 0.37267927311 0.42439867922 0.97330759074 0.48259403887 
0.91309912357 0.13643476091 0.75070135906 0.59635055463 1.2513746007 1.3325894082 0.55119068774 0.59904092463 0.42117482166 
1.2642788902 0.54134526091 0.17410863112 0.55944938809 1.2595837695 0.85140872439 0.48210793792 1.0210844286 0.20756787628 
0.18744308308 1.5847528834 0.81170086961 1.0461044325 0.34993236908 0.94998902377 0.21373223628 0.82524508836 0.81477315938 
0.031602746739 0.31160251156 0.74117453576 0.80476133712 1.2428548897 1.3172594052 0.4483427866 0.45368335536 0.070719793323 
0.40574867706 0.88521874472 0.68450392286 0.50165471365 1.1335572535 0.28162261945 0.95567840713 0.22366547886 1.0023903127 
0.14979678171 0.73816505866 0.186524087 0.89037001091 0.46935176108 0.47655971048 1.138559563 0.75574648349 0.6440448953 
0.31366225821 0.67359136065 1.1870565365 1.4959454926 0.63341597056 1.048417529 1.0765689384 0.38457153813 0.63064384698 
0.56546923872 0.40840948736 0.43200014267 1.0526473365 0.32643081382 0.35598610783 0.065565896004 0.80142329562 1.3099743929 
0.49531966238 0.59013873763 0.94950535476 0.15374482074 0.67487403983 0.1373195988 0.58121132019 0.78229708344 0.70263320326 
1.1840544978 0.72695043523 0.53206095887 0.61101879021 0.27782666081 0.27854797411 0.36837949706 0.11853310433 0.97427256669 
0.89879441019 0.65096211921 1.3778771683 0.38267724486 0.82729801956 0.23992291121 0.54105843293 1.3849508635 0.20484031559 
0.54751836745 0.86892181514 1.0296317123 0.29706069295 1.0774891017 0.58791622373 0.54257546517 1.3519281673 0.99751750082 
0.16453048019 1.5280190246 0.17962937045 0.74269276771 0.80861928871 0.86232623422 0.22064122814 0.58401317527 1.0802691616 
0.43457546632 1.0039282728 1.0213695511 1.3870837792 0.55278064186 0.51137026265 0.33750393327 0.37859063271 0.52337223936 
0.84851632941 1.206192063 0.25001934454 1.313937357 0.45986098717 0.25033703944 0.47832602657 0.47131843234 0.16979957916 
0.057607045962 0.80574856957 0.2695559534 0.53111000908 1.3870653006 0.80510861557 0.95645165304 0.96714951855 1.5427530416 
0.37432127118 1.2050328607 0.17197389703 1.4344181086 0.65106461581 0.078350564896 0.027796451863 1.2546586205 0.38017024286 
0.1699552527 0.75320872282 0.66041766792 0.68967457983 0.096860700536 0.75022602597 0.92914517122 0.6124868044 0.85721858296 
1.6032326228 0.73992907794 1.1143755493 0.37923933121 0.29977549019 0.31227984073 1.208295846 0.34458561112 0.31549830963 
0.7114447861 0.025271109116 0.31685465155 0.76387363632 0.66071826151 1.3013169727 0.069598774462 0.84527886697 0.69874754404 
1.3808359389 0.12548990688 0.50924290746 0.78749446066 0.35064414881 1.0507826838 0.44543938797 1.1482129016 0.86721604191 
0.26995439847 0.46179060784 1.2367170252 0.63795140474 0.18027018663 1.0896374765 0.11310968219 0.5517328518 0.23351452687 
0.22573921915 0.38130724379 1.1534813649 0.69525597248 1.0781447089 1.5011722565 1.4193942843 0.29898836654 0.59019128126 
0.27690350649 0.88976878136 1.0738857311 0.72955009814 0.079315574101 1.4645866544 0.43293868981 1.0213102673 0.82349027809 
0.4900423587 1.0918087818 0.24394660458 1.1141877686 1.5619521385 0.25934352245 0.77135930109 0.46545236575 0.79203290974 
0.94679367479 0.61655479625 0.31853229232 0.37953838622 0.92711604847 0.28133767289 1.1919263132 0.51245430707 0.64586189905 
0.58212492603 0.11538344363 0.65670041949 0.4098994415 1.1702048073 0.8300473987 0.70061322776 0.3423394015 0.56514877498 
0.72695905169 0.46437458237 0.50576210652 1.2230141555 0.16412740433 1.0710171378 1.6099376628 0.59677309097 0.85391356391 
0.49350022799 0.96811354594 1.0270600677 0.21376972905 0.35685887409 1.1615779081 0.8049263677 0.85445829588 1.1653316006 
0.39679925802 0.35787101644 0.28596976973 1.3004449147 0.47009519806 0.23874321497 1.3139052706 0.99814857845 0.22705478275 
0.84823706876 0.90619962317 0.59634027813 0.4888818684 0.47278115513 0.16801382545 1.1638560886 0.52837392998 0.91014249051 
0.62443952836 1.4617322773 1.2410190322 0.69850487382 0.42796348324 0.12232919524 0.72375269242 1.4311417124 1.491913899 
0.87472655263 0.14861741391 0.6172611497 1.3572311803 0.30696366035 1.3394309173 1.2295207164 0.2443757171 0.50610107922 
0.35324336006 0.53772733408 0.64725060945 0.45974718217 0.075741391668 0.94594329039 0.67816399243 0.50302809357 0.066093920862 
0.75737302526 0.61389732527 0.59552725885 0.73387852584 0.037302651356 0.73006221299 1.1378492458 0.24685934542 0.38564181472 
0.91915163175 0.94269791334 0.13973904144 0.68100645655 1.4510036119 1.1154165215 0.39005679349 1.1691946914 0.52668388018 
0.78379704806 1.0396125587 0.092274409837 0.69788692839 1.0449728973 0.65866920559 0.23469389824 0.7538337474 1.057905253 
1.4339422312 0.22891640703 0.029872284516 1.2996944982 0.62548819701 0.57520193414 0.42700530194 0.41193877064 0.8888729214 
1.3762411027 0.97730091468 0.44922904762 0.17176822343 1.156180334 0.58173398196 0.28974515556 1.3147589231 1.4669436159 